
     Program PWSCF v.6.5 starts on 20Aug2020 at 17:36: 3 

     This program is part of the open-source Quantum ESPRESSO suite
     for quantum simulation of materials; please cite
         "P. Giannozzi et al., J. Phys.:Condens. Matter 21 395502 (2009);
         "P. Giannozzi et al., J. Phys.:Condens. Matter 29 465901 (2017);
          URL http://www.quantum-espresso.org", 
     in publications or presentations arising from this work. More details at
     http://www.quantum-espresso.org/quote

     Parallel version (MPI), running on     1 processors

     MPI processes distributed on     1 nodes
     Reading input from espresso.pwi
Warning: card &IONS ignored
Warning: card / ignored
Warning: card &CELL ignored
Warning: card / ignored

     Current dimensions of program PWSCF are:
     Max number of different atomic species (ntypx) = 10
     Max number of k-points (npk) =  40000
     Max angular momentum in pseudopotentials (lmaxx) =  3

     IMPORTANT: XC functional enforced from input :
     Exchange-correlation= PBE
                           (   1   4   3   4   0   0   0)
     Any further DFT definition will be discarded
     Please, verify this is what you really want


     Subspace diagonalization in iterative solution of the eigenvalue problem:
     a serial algorithm will be used


     G-vector sticks info
     --------------------
     sticks:   dense  smooth     PW     G-vecs:    dense   smooth      PW
     Sum        2141    2141    583               391065   391065   55505



     bravais-lattice index     =            0
     lattice parameter (alat)  =      16.3174  a.u.
     unit-cell volume          =   11446.3601 (a.u.)^3
     number of atoms/cell      =           93
     number of atomic types    =            4
     number of electrons       =       368.00
     number of Kohn-Sham states=          221
     kinetic-energy cutoff     =      40.0000  Ry
     charge density cutoff     =     160.0000  Ry
     convergence threshold     =      2.0E-11
     mixing beta               =       0.7000
     number of iterations used =           10  local-TF  mixing
     Exchange-correlation= PBE
                           (   1   4   3   4   0   0   0)

     celldm(1)=  16.317403  celldm(2)=   0.000000  celldm(3)=   0.000000
     celldm(4)=   0.000000  celldm(5)=   0.000000  celldm(6)=   0.000000

     crystal axes: (cart. coord. in units of alat)
               a(1) = (   1.000000   0.000000   0.000000 )  
               a(2) = (   0.000000   0.634471   0.000000 )  
               a(3) = (   0.000000   0.000000   4.152431 )  

     reciprocal axes: (cart. coord. in units 2 pi/alat)
               b(1) = (  1.000000  0.000000  0.000000 )  
               b(2) = (  0.000000  1.576116  0.000000 )  
               b(3) = (  0.000000  0.000000  0.240823 )  


     PseudoPot. # 1 for Si read from file:
     /home/mfh/Dokumente/Forschung_Wissenschaft/DFT_Plane_Waves/2019.12.01_SCF_LDOS_Preconditioning/calculations/paper/qe_pseudos/Si.pbe-hgh.UPF
     MD5 check sum: 644c0713ebe098a80395b411a455088e
     Pseudo is Norm-conserving, Zval =  4.0
     Generated in analytical, separable form
     Using radial grid of 1141 points,  3 beta functions with: 
                l(1) =   0
                l(2) =   0
                l(3) =   1

     PseudoPot. # 2 for O  read from file:
     /home/mfh/Dokumente/Forschung_Wissenschaft/DFT_Plane_Waves/2019.12.01_SCF_LDOS_Preconditioning/calculations/paper/qe_pseudos/O.pbe-hgh.UPF
     MD5 check sum: 3e173e9dc2062953e4e95063157df22d
     Pseudo is Norm-conserving, Zval =  6.0
     Generated in analytical, separable form
     Using radial grid of 1095 points,  1 beta functions with: 
                l(1) =   0

     PseudoPot. # 3 for H  read from file:
     /home/mfh/Dokumente/Forschung_Wissenschaft/DFT_Plane_Waves/2019.12.01_SCF_LDOS_Preconditioning/calculations/paper/qe_pseudos/H.pbe-hgh.UPF
     MD5 check sum: 50ae4f52d34cf16cdfed4bce9c5a191e
     Pseudo is Norm-conserving, Zval =  1.0
     Generated in analytical, separable form
     Using radial grid of  929 points,  0 beta functions with: 

     PseudoPot. # 4 for Al read from file:
     /home/mfh/Dokumente/Forschung_Wissenschaft/DFT_Plane_Waves/2019.12.01_SCF_LDOS_Preconditioning/calculations/paper/qe_pseudos/Al.pbe-hgh.UPF
     MD5 check sum: 802bf3c274188c2a448b709cf94527cc
     Pseudo is Norm-conserving, Zval =  3.0
     Generated in analytical, separable form
     Using radial grid of 1135 points,  3 beta functions with: 
                l(1) =   0
                l(2) =   0
                l(3) =   1

     atomic species   valence    mass     pseudopotential
        Si             4.00    28.08500     Si( 1.00)
        O              6.00    15.99900     O ( 1.00)
        H              1.00     1.00800     H ( 1.00)
        Al             3.00    26.98154     Al( 1.00)

     No symmetry found



   Cartesian axes

     site n.     atom                  positions (alat units)
         1           Si  tau(   1) = (   0.7908591   0.1136122   0.2094892  )
         2           Si  tau(   2) = (   0.2619971   0.5365932   0.2094892  )
         3           Si  tau(   3) = (   0.5264281   0.3251024   0.0901469  )
         4           Si  tau(   4) = (   0.2908591   0.1136122   0.4981644  )
         5           Si  tau(   5) = (   0.7619971   0.5365932   0.4981644  )
         6           Si  tau(   6) = (   0.0264281   0.3251024   0.3788220  )
         7           Si  tau(   7) = (   0.7908591   0.1136122   0.7868395  )
         8           Si  tau(   8) = (   0.2619971   0.5365932   0.7868395  )
         9           Si  tau(   9) = (   0.5264281   0.3251024   0.6674971  )
        10           Si  tau(  10) = (   0.2908591   0.1136122   1.0755146  )
        11           Si  tau(  11) = (   0.7619971   0.5365932   1.0755146  )
        12           Si  tau(  12) = (   0.0264281   0.3251024   0.9561723  )
        13           Si  tau(  13) = (   0.7908591   0.1136122   1.3641898  )
        14           Si  tau(  14) = (   0.2619971   0.5365932   1.3641898  )
        15           Si  tau(  15) = (   0.5264281   0.3251024   1.2448474  )
        16           O   tau(  16) = (   0.7334461   0.6130679   0.3283968  )
        17           O   tau(  17) = (   0.9521576   0.1900869   0.2696471  )
        18           O   tau(  18) = (   0.3936806   0.4015777   0.1997565  )
        19           O   tau(  19) = (   0.3194101   0.0371369   0.3283968  )
        20           O   tau(  20) = (   0.1006986   0.4601178   0.2696471  )
        21           O   tau(  21) = (   0.6591756   0.2486271   0.1997565  )
        22           O   tau(  22) = (   0.2334461   0.6130679   0.6170720  )
        23           O   tau(  23) = (   0.4521576   0.1900869   0.5583222  )
        24           O   tau(  24) = (   0.8936806   0.4015777   0.4884317  )
        25           O   tau(  25) = (   0.8194101   0.0371369   0.6170720  )
        26           O   tau(  26) = (   0.6006986   0.4601178   0.5583222  )
        27           O   tau(  27) = (   0.1591756   0.2486271   0.4884317  )
        28           O   tau(  28) = (   0.7334461   0.6130679   0.9057471  )
        29           O   tau(  29) = (   0.9521576   0.1900869   0.8469974  )
        30           O   tau(  30) = (   0.3936806   0.4015777   0.7771068  )
        31           O   tau(  31) = (   0.3194101   0.0371369   0.9057471  )
        32           O   tau(  32) = (   0.1006986   0.4601178   0.8469974  )
        33           O   tau(  33) = (   0.6591756   0.2486271   0.7771068  )
        34           O   tau(  34) = (   0.2334461   0.6130679   1.1944222  )
        35           O   tau(  35) = (   0.4521576   0.1900869   1.1356725  )
        36           O   tau(  36) = (   0.8936806   0.4015777   1.0657819  )
        37           O   tau(  37) = (   0.8194101   0.0371369   1.1944222  )
        38           O   tau(  38) = (   0.6006986   0.4601178   1.1356725  )
        39           O   tau(  39) = (   0.1591756   0.2486271   1.0657819  )
        40           O   tau(  40) = (   0.7334461   0.6130679   1.4830974  )
        41           O   tau(  41) = (   0.9521576   0.1900869   1.4243476  )
        42           O   tau(  42) = (   0.3936806   0.4015777   1.3544571  )
        43           O   tau(  43) = (   0.3194101   0.0371369   1.4830974  )
        44           O   tau(  44) = (   0.1006986   0.4601178   1.4243476  )
        45           O   tau(  45) = (   0.6591756   0.2486271   1.3544571  )
        46           H   tau(  46) = (   0.2619971   0.5365932   0.0994693  )
        47           H   tau(  47) = (   0.7908591   0.1136122   0.0994693  )
        48           H   tau(  48) = (   0.4743134   0.2440351   0.0380322  )
        49           H   tau(  49) = (   0.5727523   0.4061697   0.0380322  )
        50           H   tau(  50) = (   0.7334461   0.6130679   1.5931173  )
        51           H   tau(  51) = (   0.9521576   0.1900869   1.5343676  )
        52           H   tau(  52) = (   0.3194101   0.0371369   1.5931173  )
        53           H   tau(  53) = (   0.1006986   0.4601178   1.5343676  )
        54           Al  tau(  54) = (   0.1289851   0.1641283   1.8059524  )
        55           Al  tau(  55) = (   0.3789851   0.4813639   1.8059524  )
        56           Al  tau(  56) = (   0.1289851   0.4813639   2.0404686  )
        57           Al  tau(  57) = (   0.3789851   0.1641283   2.0404686  )
        58           Al  tau(  58) = (   0.1289851   0.1641283   2.2749848  )
        59           Al  tau(  59) = (   0.3789851   0.4813639   2.2749848  )
        60           Al  tau(  60) = (   0.1289851   0.4813639   2.5095010  )
        61           Al  tau(  61) = (   0.3789851   0.1641283   2.5095010  )
        62           Al  tau(  62) = (   0.1289851   0.1641283   2.7440172  )
        63           Al  tau(  63) = (   0.3789851   0.4813639   2.7440172  )
        64           Al  tau(  64) = (   0.1289851   0.4813639   2.9785334  )
        65           Al  tau(  65) = (   0.3789851   0.1641283   2.9785334  )
        66           Al  tau(  66) = (   0.1289851   0.1641283   3.2130496  )
        67           Al  tau(  67) = (   0.3789851   0.4813639   3.2130496  )
        68           Al  tau(  68) = (   0.1289851   0.4813639   3.4475658  )
        69           Al  tau(  69) = (   0.3789851   0.1641283   3.4475658  )
        70           Al  tau(  70) = (   0.1289851   0.1641283   3.6820820  )
        71           Al  tau(  71) = (   0.3789851   0.4813639   3.6820820  )
        72           Al  tau(  72) = (   0.1289851   0.4813639   3.9165982  )
        73           Al  tau(  73) = (   0.3789851   0.1641283   3.9165982  )
        74           Al  tau(  74) = (   0.6289851   0.1641283   1.8059524  )
        75           Al  tau(  75) = (   0.8789851   0.4813639   1.8059524  )
        76           Al  tau(  76) = (   0.6289851   0.4813639   2.0404686  )
        77           Al  tau(  77) = (   0.8789851   0.1641283   2.0404686  )
        78           Al  tau(  78) = (   0.6289851   0.1641283   2.2749848  )
        79           Al  tau(  79) = (   0.8789851   0.4813639   2.2749848  )
        80           Al  tau(  80) = (   0.6289851   0.4813639   2.5095010  )
        81           Al  tau(  81) = (   0.8789851   0.1641283   2.5095010  )
        82           Al  tau(  82) = (   0.6289851   0.1641283   2.7440172  )
        83           Al  tau(  83) = (   0.8789851   0.4813639   2.7440172  )
        84           Al  tau(  84) = (   0.6289851   0.4813639   2.9785334  )
        85           Al  tau(  85) = (   0.8789851   0.1641283   2.9785334  )
        86           Al  tau(  86) = (   0.6289851   0.1641283   3.2130496  )
        87           Al  tau(  87) = (   0.8789851   0.4813639   3.2130496  )
        88           Al  tau(  88) = (   0.6289851   0.4813639   3.4475658  )
        89           Al  tau(  89) = (   0.8789851   0.1641283   3.4475658  )
        90           Al  tau(  90) = (   0.6289851   0.1641283   3.6820820  )
        91           Al  tau(  91) = (   0.8789851   0.4813639   3.6820820  )
        92           Al  tau(  92) = (   0.6289851   0.4813639   3.9165982  )
        93           Al  tau(  93) = (   0.8789851   0.1641283   3.9165982  )

     number of k points=     8  Gaussian smearing, width (Ry)=  0.0020
                       cart. coord. in units 2pi/alat
        k(    1) = (   0.0000000   0.0000000   0.0000000), wk =   0.1333333
        k(    2) = (   0.0000000   0.3152232   0.0000000), wk =   0.2666667
        k(    3) = (   0.0000000   0.6304464   0.0000000), wk =   0.2666667
        k(    4) = (   0.3333333   0.0000000   0.0000000), wk =   0.2666667
        k(    5) = (   0.3333333   0.3152232   0.0000000), wk =   0.2666667
        k(    6) = (   0.3333333   0.6304464   0.0000000), wk =   0.2666667
        k(    7) = (  -0.3333333   0.3152232   0.0000000), wk =   0.2666667
        k(    8) = (  -0.3333333   0.6304464   0.0000000), wk =   0.2666667

     Dense  grid:   391065 G-vectors     FFT dimensions: (  72,  45, 288)

     Estimated max dynamical RAM per process >       3.28 GB

     Initial potential from superposition of free atoms

     starting charge  367.89994, renormalised to  368.00000

     negative rho (up, down):  5.409E-07 0.000E+00
     Starting wfcs are  348 randomized atomic wfcs

     total cpu time spent up to now is       82.1 secs

     Self-consistent Calculation

     iteration #  1     ecut=    40.00 Ry     beta= 0.70
     Davidson diagonalization with overlap
     ethr =  1.00E-02,  avg # of iterations =  3.0

     total cpu time spent up to now is      255.3 secs

     total energy              =   -1215.49369213 Ry
     Harris-Foulkes estimate   =   -1216.47958495 Ry
     estimated scf accuracy    <       9.98403403 Ry

     iteration #  2     ecut=    40.00 Ry     beta= 0.70
     Davidson diagonalization with overlap
     ethr =  2.71E-03,  avg # of iterations =  1.0

     negative rho (up, down):  3.097E-05 0.000E+00

     total cpu time spent up to now is      370.4 secs

     total energy              =   -1215.57391861 Ry
     Harris-Foulkes estimate   =   -1215.76312127 Ry
     estimated scf accuracy    <       1.20688700 Ry

     iteration #  3     ecut=    40.00 Ry     beta= 0.70
     Davidson diagonalization with overlap
     ethr =  3.28E-04,  avg # of iterations =  3.1

     negative rho (up, down):  4.754E-06 0.000E+00

     total cpu time spent up to now is      494.5 secs

     total energy              =   -1215.63008924 Ry
     Harris-Foulkes estimate   =   -1215.64586975 Ry
     estimated scf accuracy    <       0.09561827 Ry

     iteration #  4     ecut=    40.00 Ry     beta= 0.70
     Davidson diagonalization with overlap
     ethr =  2.60E-05,  avg # of iterations =  9.2

     total cpu time spent up to now is      656.0 secs

     total energy              =   -1215.63635313 Ry
     Harris-Foulkes estimate   =   -1215.63808201 Ry
     estimated scf accuracy    <       0.02411241 Ry

     iteration #  5     ecut=    40.00 Ry     beta= 0.70
     Davidson diagonalization with overlap
     ethr =  6.55E-06,  avg # of iterations =  3.2

     total cpu time spent up to now is      782.0 secs

     total energy              =   -1215.63696275 Ry
     Harris-Foulkes estimate   =   -1215.63795090 Ry
     estimated scf accuracy    <       0.00927795 Ry

     iteration #  6     ecut=    40.00 Ry     beta= 0.70
     Davidson diagonalization with overlap
     ethr =  2.52E-06,  avg # of iterations =  2.8

     total cpu time spent up to now is      902.0 secs

     total energy              =   -1215.63611457 Ry
     Harris-Foulkes estimate   =   -1215.63722005 Ry
     estimated scf accuracy    <       0.00639418 Ry

     iteration #  7     ecut=    40.00 Ry     beta= 0.70
     Davidson diagonalization with overlap
     ethr =  1.74E-06,  avg # of iterations =  6.8

     total cpu time spent up to now is     1032.5 secs

     total energy              =   -1215.63597290 Ry
     Harris-Foulkes estimate   =   -1215.63641404 Ry
     estimated scf accuracy    <       0.00311409 Ry

     iteration #  8     ecut=    40.00 Ry     beta= 0.70
     Davidson diagonalization with overlap
     ethr =  8.46E-07,  avg # of iterations =  2.0

     total cpu time spent up to now is     1154.2 secs

     total energy              =   -1215.63598448 Ry
     Harris-Foulkes estimate   =   -1215.63616093 Ry
     estimated scf accuracy    <       0.00121583 Ry

     iteration #  9     ecut=    40.00 Ry     beta= 0.70
     Davidson diagonalization with overlap
     ethr =  3.30E-07,  avg # of iterations =  2.0

     total cpu time spent up to now is     1279.7 secs

     total energy              =   -1215.63593450 Ry
     Harris-Foulkes estimate   =   -1215.63605752 Ry
     estimated scf accuracy    <       0.00065990 Ry

     iteration # 10     ecut=    40.00 Ry     beta= 0.70
     Davidson diagonalization with overlap
     ethr =  1.79E-07,  avg # of iterations =  2.0

     total cpu time spent up to now is     1415.9 secs

     total energy              =   -1215.63591074 Ry
     Harris-Foulkes estimate   =   -1215.63597516 Ry
     estimated scf accuracy    <       0.00033963 Ry

     iteration # 11     ecut=    40.00 Ry     beta= 0.70
     Davidson diagonalization with overlap
     ethr =  9.23E-08,  avg # of iterations =  2.0

     total cpu time spent up to now is     5276.6 secs

     total energy              =   -1215.63589819 Ry
     Harris-Foulkes estimate   =   -1215.63593871 Ry
     estimated scf accuracy    <       0.00016659 Ry

     iteration # 12     ecut=    40.00 Ry     beta= 0.70
     Davidson diagonalization with overlap
     ethr =  4.53E-08,  avg # of iterations =  2.0

     total cpu time spent up to now is     5399.6 secs

     total energy              =   -1215.63589764 Ry
     Harris-Foulkes estimate   =   -1215.63591008 Ry
     estimated scf accuracy    <       0.00005477 Ry

     iteration # 13     ecut=    40.00 Ry     beta= 0.70
     Davidson diagonalization with overlap
     ethr =  1.49E-08,  avg # of iterations =  2.0

     total cpu time spent up to now is     5517.5 secs

     total energy              =   -1215.63589643 Ry
     Harris-Foulkes estimate   =   -1215.63590112 Ry
     estimated scf accuracy    <       0.00002481 Ry

     iteration # 14     ecut=    40.00 Ry     beta= 0.70
     Davidson diagonalization with overlap
     ethr =  6.74E-09,  avg # of iterations =  2.0

     total cpu time spent up to now is     5635.1 secs

     total energy              =   -1215.63589488 Ry
     Harris-Foulkes estimate   =   -1215.63589759 Ry
     estimated scf accuracy    <       0.00001405 Ry

     iteration # 15     ecut=    40.00 Ry     beta= 0.70
     Davidson diagonalization with overlap
     ethr =  3.82E-09,  avg # of iterations =  2.0

     total cpu time spent up to now is     5800.1 secs

     total energy              =   -1215.63589523 Ry
     Harris-Foulkes estimate   =   -1215.63589584 Ry
     estimated scf accuracy    <       0.00000871 Ry

     iteration # 16     ecut=    40.00 Ry     beta= 0.70
     Davidson diagonalization with overlap
     ethr =  2.37E-09,  avg # of iterations =  1.0

     total cpu time spent up to now is     5915.8 secs

     total energy              =   -1215.63589487 Ry
     Harris-Foulkes estimate   =   -1215.63589538 Ry
     estimated scf accuracy    <       0.00000698 Ry

     iteration # 17     ecut=    40.00 Ry     beta= 0.70
     Davidson diagonalization with overlap
     ethr =  1.90E-09,  avg # of iterations =  1.0

     total cpu time spent up to now is     6029.1 secs

     total energy              =   -1215.63589448 Ry
     Harris-Foulkes estimate   =   -1215.63589498 Ry
     estimated scf accuracy    <       0.00000576 Ry

     iteration # 18     ecut=    40.00 Ry     beta= 0.70
     Davidson diagonalization with overlap
     ethr =  1.57E-09,  avg # of iterations =  1.0

     total cpu time spent up to now is     6142.4 secs

     total energy              =   -1215.63589352 Ry
     Harris-Foulkes estimate   =   -1215.63589457 Ry
     estimated scf accuracy    <       0.00000435 Ry

     iteration # 19     ecut=    40.00 Ry     beta= 0.70
     Davidson diagonalization with overlap
     ethr =  1.18E-09,  avg # of iterations =  2.0

     total cpu time spent up to now is     6262.6 secs

     total energy              =   -1215.63589322 Ry
     Harris-Foulkes estimate   =   -1215.63589380 Ry
     estimated scf accuracy    <       0.00000183 Ry

     iteration # 20     ecut=    40.00 Ry     beta= 0.70
     Davidson diagonalization with overlap
     ethr =  4.98E-10,  avg # of iterations =  2.0

     total cpu time spent up to now is     6387.3 secs

     total energy              =   -1215.63589322 Ry
     Harris-Foulkes estimate   =   -1215.63589337 Ry
     estimated scf accuracy    <       0.00000053 Ry

     iteration # 21     ecut=    40.00 Ry     beta= 0.70
     Davidson diagonalization with overlap
     ethr =  1.43E-10,  avg # of iterations =  2.5

     total cpu time spent up to now is     6520.6 secs

     total energy              =   -1215.63589327 Ry
     Harris-Foulkes estimate   =   -1215.63589329 Ry
     estimated scf accuracy    <       0.00000008 Ry

     iteration # 22     ecut=    40.00 Ry     beta= 0.70
     Davidson diagonalization with overlap
     ethr =  2.10E-11,  avg # of iterations =  2.0

     total cpu time spent up to now is     6660.8 secs

     total energy              =   -1215.63589328 Ry
     Harris-Foulkes estimate   =   -1215.63589328 Ry
     estimated scf accuracy    <       0.00000001 Ry

     iteration # 23     ecut=    40.00 Ry     beta= 0.70
     Davidson diagonalization with overlap
     ethr =  2.77E-12,  avg # of iterations =  2.0

     total cpu time spent up to now is     6795.4 secs

     total energy              =   -1215.63589328 Ry
     Harris-Foulkes estimate   =   -1215.63589328 Ry
     estimated scf accuracy    <          1.9E-09 Ry

     iteration # 24     ecut=    40.00 Ry     beta= 0.70
     Davidson diagonalization with overlap
     ethr =  5.14E-13,  avg # of iterations =  2.0

     total cpu time spent up to now is     6921.7 secs

     total energy              =   -1215.63589328 Ry
     Harris-Foulkes estimate   =   -1215.63589328 Ry
     estimated scf accuracy    <          4.0E-10 Ry

     iteration # 25     ecut=    40.00 Ry     beta= 0.70
     Davidson diagonalization with overlap
     ethr =  1.09E-13,  avg # of iterations =  2.0

     total cpu time spent up to now is     7054.7 secs

     total energy              =   -1215.63589328 Ry
     Harris-Foulkes estimate   =   -1215.63589328 Ry
     estimated scf accuracy    <          1.0E-10 Ry

     iteration # 26     ecut=    40.00 Ry     beta= 0.70
     Davidson diagonalization with overlap
     ethr =  1.00E-13,  avg # of iterations =  1.0

     total cpu time spent up to now is     7167.7 secs

     total energy              =   -1215.63589328 Ry
     Harris-Foulkes estimate   =   -1215.63589328 Ry
     estimated scf accuracy    <          2.6E-11 Ry

     iteration # 27     ecut=    40.00 Ry     beta= 0.70
     Davidson diagonalization with overlap
     ethr =  1.00E-13,  avg # of iterations =  1.0

     total cpu time spent up to now is     7279.8 secs

     End of self-consistent calculation

          k = 0.0000 0.0000 0.0000 ( 49049 PWs)   bands (ev):

   -18.6088 -18.2468 -18.1863 -17.9887 -17.8165 -17.7329 -17.6177 -17.5348
   -17.4011 -17.3646 -17.3193 -17.1839 -17.1296 -17.0105 -16.9435 -16.9019
   -16.7816 -16.7804 -16.7708 -16.7092 -16.6937 -16.6156 -16.5544 -16.5325
   -16.4778 -16.4485 -16.4195 -16.3091 -16.2861 -16.1907  -7.9738  -7.3438
    -7.1293  -7.1123  -6.8792  -6.7138  -6.5704  -6.5432  -6.1079  -5.7554
    -5.5343  -5.1345  -4.9602  -4.7119  -4.5803  -4.3810  -4.3195  -4.3122
    -4.2161  -4.2039  -4.0824  -4.0557  -4.0497  -3.9325  -3.8766  -3.8143
    -3.7709  -3.6926  -3.6046  -3.4445  -3.4187  -3.3232  -3.3136  -3.1766
    -3.0571  -3.0079  -2.8862  -2.8233  -2.6507  -2.6166  -2.6155  -2.3689
    -2.3681  -1.9859  -1.9846  -1.8199  -1.7738  -1.6858  -1.5798  -1.5712
    -1.4540  -1.4497  -1.4178  -1.4118  -1.4013  -1.3296  -1.2931  -1.2425
    -1.1549  -1.0263  -0.9875  -0.9510  -0.8324  -0.8052  -0.7920  -0.7773
    -0.7223  -0.7005  -0.6354  -0.6236  -0.5569  -0.5277  -0.4404  -0.3284
    -0.3197  -0.3132  -0.2205  -0.1882  -0.1426  -0.0718  -0.0637  -0.0444
     0.0433   0.0646   0.0712   0.1385   0.1791   0.1813   0.2751   0.2945
     0.3087   0.3565   0.3745   0.4050   0.5595   0.5730   0.6053   0.6499
     0.6516   0.7274   0.7755   0.8659   0.8713   0.8941   0.9199   0.9274
     0.9836   1.0225   1.0932   1.0950   1.1330   1.1568   1.2545   1.2811
     1.2838   1.3844   1.5045   1.5515   1.5753   1.5825   1.5858   1.5893
     1.6076   1.7058   1.7604   1.7782   1.7852   1.8073   1.8669   1.9344
     2.0379   2.1920   2.3393   2.6604   2.6655   2.7026   2.7709   2.7881
     2.7887   2.8856   2.8906   2.8921   3.0059   3.0250   3.0250   3.1511
     3.3721   3.3926   3.3930   3.5125   3.5194   3.5322   3.5519   3.5708
     3.5763   3.7141   3.7336   3.8005   3.8981   3.9162   3.9173   4.4169
     4.4216   4.4506   4.5641   4.5691   4.5781   4.6716   4.6874   4.9241
     5.0059   5.3652   5.3677   5.3774   5.4550   5.4675   5.5097   5.5196
     5.5370   5.6764   5.6994   5.7777   6.2685   6.2831   6.2929   6.3196
     6.4765   6.4944   6.4970   6.5354   6.6233

          k = 0.0000 0.3152 0.0000 ( 48965 PWs)   bands (ev):

   -18.5441 -18.1998 -18.1702 -17.9671 -17.7878 -17.7418 -17.6796 -17.6039
   -17.4580 -17.4155 -17.2790 -17.2181 -17.0762 -17.0007 -16.9260 -16.8779
   -16.7893 -16.7831 -16.7555 -16.6969 -16.6849 -16.6212 -16.5673 -16.5242
   -16.4782 -16.4501 -16.4185 -16.3110 -16.2583 -16.1898  -8.0374  -7.5920
    -7.2597  -7.0042  -6.7505  -6.6100  -6.5368  -6.1173  -5.9924  -5.8584
    -5.4995  -5.2212  -5.0350  -4.7854  -4.5463  -4.3902  -4.3653  -4.2617
    -4.2246  -4.1956  -4.1331  -4.0241  -3.9636  -3.8215  -3.7915  -3.7454
    -3.6984  -3.6564  -3.5318  -3.4834  -3.4194  -3.2752  -3.2360  -3.1644
    -3.1456  -3.0248  -2.9704  -2.7873  -2.4635  -2.4250  -2.4246  -2.1788
    -2.1778  -1.8459  -1.8005  -1.7931  -1.7430  -1.6490  -1.6278  -1.5343
    -1.5044  -1.4289  -1.3985  -1.3382  -1.3209  -1.2878  -1.2744  -1.2464
    -1.2399  -1.2133  -1.1172  -0.9987  -0.9768  -0.9150  -0.8824  -0.8150
    -0.7651  -0.7582  -0.6743  -0.6162  -0.5912  -0.5620  -0.5334  -0.4860
    -0.4226  -0.3753  -0.3585  -0.3275  -0.2692  -0.2349  -0.1361  -0.0941
    -0.0514   0.0157   0.0507   0.0786   0.1596   0.2153   0.2420   0.2548
     0.2691   0.3077   0.3270   0.3896   0.3920   0.3959   0.4374   0.4963
     0.5375   0.5580   0.5954   0.6216   0.6254   0.6723   0.7496   0.7804
     0.8133   0.8615   0.9098   0.9434   0.9520   0.9641   1.0077   1.0392
     1.0791   1.1265   1.1404   1.1925   1.2290   1.2548   1.3071   1.3651
     1.4983   1.6220   1.6835   1.7482   1.7676   1.8451   1.8509   1.9331
     2.0978   2.1771   2.2544   2.2635   2.4722   2.5768   2.5916   2.7078
     2.9498   3.0610   3.0721   3.0869   3.1071   3.1239   3.1847   3.5505
     3.5865   3.6448   3.6638   3.7204   3.7423   3.9698   4.0575   4.0749
     4.0772   4.2221   4.2959   4.3008   4.5849   4.6297   4.6340   4.6642
     4.7409   4.8795   4.8964   4.9071   5.0379   5.0691   5.0889   5.1259
     5.1448   5.4669   5.4752   5.4769   5.5509   5.5985   5.7052   5.8154
     5.8462   5.8591   6.0624   6.0682   6.1073   6.1159   6.1226   6.2589
     6.4260   6.4418   6.5006   6.5807   6.7710

          k = 0.0000 0.6304 0.0000 ( 48829 PWs)   bands (ev):

   -18.3646 -18.1674 -18.1080 -18.0167 -17.8897 -17.7386 -17.6971 -17.6146
   -17.5670 -17.4321 -17.2717 -17.2153 -17.1303 -16.9517 -16.9186 -16.8646
   -16.7890 -16.7773 -16.7023 -16.6966 -16.6638 -16.6269 -16.5729 -16.5256
   -16.4756 -16.4353 -16.4168 -16.3077 -16.2078 -16.1876  -8.2296  -7.6671
    -7.2462  -7.0310  -6.7277  -6.5507  -6.2148  -6.0563  -5.7427  -5.5238
    -5.4249  -5.2996  -5.2013  -4.9752  -4.7668  -4.4685  -4.3780  -4.2347
    -4.1574  -4.0645  -3.9445  -3.8413  -3.8077  -3.7638  -3.6989  -3.6030
    -3.5618  -3.5443  -3.4500  -3.3821  -3.3465  -3.2728  -3.1893  -3.1639
    -3.0330  -2.9532  -2.8457  -2.7989  -2.5943  -2.5892  -2.2073  -1.9146
    -1.9049  -1.8514  -1.8511  -1.7642  -1.6588  -1.6386  -1.6117  -1.6078
    -1.5225  -1.4638  -1.4021  -1.3439  -1.3008  -1.2544  -1.2298  -1.1998
    -1.1694  -1.0825  -1.0526  -1.0116  -0.9500  -0.9198  -0.9024  -0.9020
    -0.8531  -0.7534  -0.7077  -0.6989  -0.6762  -0.6633  -0.6615  -0.6183
    -0.5992  -0.5464  -0.5175  -0.3795  -0.3265  -0.3048  -0.3019  -0.2910
    -0.2533  -0.2043  -0.1686  -0.1263  -0.1030  -0.0904  -0.0542  -0.0400
    -0.0113   0.0361   0.0932   0.1306   0.1716   0.2295   0.2388   0.3070
     0.3155   0.4119   0.4592   0.4678   0.5419   0.5508   0.5783   0.6133
     0.6290   0.7136   0.7475   0.7755   0.8580   0.8856   0.9052   0.9562
     0.9986   1.0213   1.0910   1.1227   1.1265   1.1759   1.2267   1.2574
     1.3162   1.3219   1.3346   1.3723   1.5398   1.6118   1.6640   1.7719
     1.7788   1.9506   1.9692   2.0844   2.0895   2.1284   2.2867   2.7315
     2.7457   3.1022   3.1144   3.1323   3.4828   3.5530   3.7170   3.8018
     3.8234   4.0430   4.0823   4.2900   4.3138   4.3516   4.4740   4.5844
     4.6060   4.7292   4.7401   4.8530   4.9460   4.9520   4.9839   5.0703
     5.1469   5.2503   5.2687   5.3069   5.4181   5.4666   5.5538   5.6086
     5.6214   5.6748   5.8875   6.0029   6.0226   6.0694   6.0783   6.1284
     6.1803   6.3449   6.5174   6.5485   6.6103   6.6743   6.6794   6.7162
     6.9198   6.9449   6.9577   7.0114   7.1007

          k = 0.3333 0.0000 0.0000 ( 48891 PWs)   bands (ev):

   -18.5429 -18.3515 -18.1499 -17.9472 -17.8909 -17.6785 -17.6088 -17.4870
   -17.4017 -17.3646 -17.2636 -17.1913 -17.0971 -16.9987 -16.9355 -16.9181
   -16.7881 -16.7739 -16.7570 -16.6991 -16.6909 -16.6310 -16.5648 -16.5249
   -16.4701 -16.4556 -16.4012 -16.3235 -16.2664 -16.1962  -7.9095  -7.3018
    -7.2093  -7.0724  -6.8927  -6.7948  -6.5188  -6.4704  -6.1390  -5.9549
    -5.7235  -4.8698  -4.7231  -4.6166  -4.3964  -4.3627  -4.2557  -4.2446
    -4.2043  -4.1209  -4.1076  -4.0634  -3.9824  -3.8686  -3.8206  -3.7974
    -3.7136  -3.7024  -3.6373  -3.5755  -3.5291  -3.4755  -3.4285  -3.3440
    -3.2485  -3.1406  -3.1278  -3.0744  -3.0473  -2.9531  -2.6414  -2.4960
    -2.4337  -1.8123  -1.7635  -1.7285  -1.6396  -1.5983  -1.5530  -1.4399
    -1.3823  -1.3415  -1.3303  -1.2067  -1.1557  -1.1351  -1.1065  -1.0728
    -1.0066  -0.9462  -0.9080  -0.8660  -0.7998  -0.7689  -0.7227  -0.6781
    -0.6195  -0.5973  -0.5699  -0.4931  -0.4671  -0.4358  -0.3623  -0.2690
    -0.1932  -0.1617  -0.1312  -0.1000  -0.0746  -0.0427   0.0179   0.0415
     0.0652   0.0945   0.1398   0.1568   0.1777   0.2816   0.3443   0.4097
     0.4381   0.4616   0.4869   0.5125   0.5404   0.6070   0.6307   0.6492
     0.6861   0.7007   0.7640   0.7801   0.7875   0.8098   0.9037   0.9198
     0.9953   1.0378   1.0440   1.0669   1.1045   1.1092   1.1283   1.1433
     1.1751   1.2306   1.2479   1.3434   1.3669   1.4041   1.4089   1.4243
     1.5029   1.5517   1.6224   1.6942   1.7118   1.7313   1.7384   1.7625
     1.8322   1.8921   1.9745   1.9932   2.1555   2.2426   2.2550   2.2717
     2.3459   2.6341   2.7402   2.8711   2.9121   2.9250   3.0576   3.0782
     3.4076   3.4440   3.4631   3.5353   3.6706   3.7020   3.7235   3.8291
     3.9440   3.9800   4.2567   4.2615   4.3407   4.3638   4.3704   4.4905
     4.6132   4.6646   4.7918   4.8230   4.8515   4.8559   5.0147   5.1338
     5.2713   5.3504   5.3723   5.4814   5.5111   5.7154   5.7858   5.8235
     5.8412   5.9406   6.0218   6.0397   6.1219   6.1307   6.3195   6.3612
     6.4582   6.5285   6.5840   6.6407   6.7105

          k = 0.3333 0.3152 0.0000 ( 48890 PWs)   bands (ev):

   -18.4834 -18.3124 -18.1182 -17.9213 -17.8475 -17.7563 -17.6603 -17.5506
   -17.5307 -17.3978 -17.2359 -17.1014 -17.0721 -17.0271 -16.9368 -16.8894
   -16.8272 -16.7741 -16.7256 -16.7018 -16.6841 -16.6301 -16.5993 -16.5080
   -16.4758 -16.4360 -16.4094 -16.3319 -16.2431 -16.1927  -7.8898  -7.6615
    -7.3062  -7.0918  -6.8258  -6.6309  -6.2903  -6.1772  -6.0543  -5.9814
    -5.6306  -4.9837  -4.8252  -4.7801  -4.6307  -4.3648  -4.2540  -4.2359
    -4.1701  -4.0852  -4.0443  -3.9243  -3.9088  -3.8301  -3.7236  -3.6948
    -3.6722  -3.6169  -3.5198  -3.5141  -3.5039  -3.4032  -3.3095  -3.2668
    -3.2053  -3.1931  -3.1135  -3.0137  -2.9542  -2.8631  -2.7202  -2.3120
    -2.2556  -1.8407  -1.7124  -1.6329  -1.6017  -1.5281  -1.4770  -1.4482
    -1.3729  -1.3185  -1.2859  -1.2477  -1.2146  -1.1843  -1.1517  -1.0934
    -1.0761  -0.9971  -0.9478  -0.9156  -0.8943  -0.7960  -0.7628  -0.7048
    -0.6765  -0.6734  -0.6692  -0.6231  -0.5514  -0.5144  -0.4881  -0.4352
    -0.3949  -0.3866  -0.3163  -0.2962  -0.2553  -0.1909  -0.1571  -0.1268
    -0.0850  -0.0527  -0.0169   0.0086   0.0404   0.1272   0.1735   0.1858
     0.2208   0.2579   0.2741   0.3525   0.3844   0.4249   0.4662   0.5194
     0.5244   0.5459   0.6392   0.6973   0.7029   0.7386   0.7713   0.8072
     0.8539   0.8756   0.9293   0.9950   0.9971   1.0289   1.0376   1.1016
     1.1218   1.2262   1.2507   1.2539   1.2834   1.3244   1.3547   1.4040
     1.4419   1.5186   1.5778   1.7009   1.7779   1.8518   1.9119   1.9299
     1.9617   1.9745   2.0210   2.1402   2.1826   2.6103   2.6253   2.6816
     2.7146   2.8318   2.8864   2.9229   3.0560   3.1458   3.1564   3.2730
     3.3021   3.5213   3.5274   3.6473   3.6842   3.6894   3.7487   3.8445
     3.9952   4.0170   4.1112   4.1594   4.1802   4.4104   4.4765   4.5102
     4.5163   4.6599   4.7203   4.8469   4.9457   5.1032   5.1470   5.2878
     5.3112   5.5372   5.5912   5.7039   5.7422   5.7774   5.9130   6.0161
     6.1756   6.2253   6.2510   6.3381   6.3724   6.3854   6.4091   6.4614
     6.5708   6.6516   6.6621   6.8214   6.8867

          k = 0.3333 0.6304 0.0000 ( 48860 PWs)   bands (ev):

   -18.3259 -18.2244 -18.0669 -18.0358 -17.8414 -17.7702 -17.7076 -17.6826
   -17.5716 -17.5108 -17.2232 -17.1038 -17.0314 -16.9819 -16.9341 -16.8767
   -16.8276 -16.7860 -16.6966 -16.6900 -16.6766 -16.6371 -16.6162 -16.5165
   -16.4670 -16.4322 -16.3991 -16.3403 -16.2114 -16.1874  -8.0369  -7.7027
    -7.4456  -7.1594  -6.9188  -6.3101  -6.1287  -5.9914  -5.8179  -5.5004
    -5.4715  -5.3073  -5.0905  -4.9255  -4.8753  -4.4745  -4.3905  -4.2263
    -4.0553  -4.0051  -3.9344  -3.8586  -3.7773  -3.6832  -3.5937  -3.5822
    -3.5612  -3.4958  -3.4049  -3.3395  -3.2739  -3.2383  -3.1673  -3.0952
    -3.0680  -2.9489  -2.9319  -2.8572  -2.6800  -2.6279  -2.3865  -2.3794
    -2.2957  -1.9944  -1.9790  -1.9064  -1.7558  -1.7360  -1.7313  -1.6999
    -1.6437  -1.5640  -1.4963  -1.4356  -1.4048  -1.3857  -1.3521  -1.2811
    -1.2136  -1.1020  -1.0991  -1.0758  -1.0336  -0.9482  -0.9032  -0.8450
    -0.8040  -0.7796  -0.7663  -0.7466  -0.6722  -0.5611  -0.5028  -0.4795
    -0.4469  -0.3989  -0.3600  -0.3440  -0.2640  -0.2158  -0.1618  -0.1245
    -0.1002  -0.0803  -0.0317   0.0032   0.0863   0.1003   0.1438   0.1533
     0.1704   0.1934   0.2308   0.2556   0.3630   0.3681   0.4033   0.4928
     0.5294   0.5506   0.5871   0.6079   0.6312   0.6702   0.6884   0.7288
     0.7822   0.7960   0.8094   0.8351   0.8699   0.9098   0.9601   0.9765
     1.0344   1.0881   1.1212   1.1568   1.1859   1.2162   1.2692   1.3266
     1.3835   1.4291   1.5032   1.5501   1.5951   1.6674   1.6891   1.7671
     1.8453   1.8884   1.8959   1.9631   2.0359   2.1717   2.3079   2.4457
     2.4605   2.5127   2.5588   2.7799   2.8525   2.9347   3.0889   3.1561
     3.4168   3.4345   3.4504   3.4667   3.6953   3.8292   3.9840   4.1570
     4.2665   4.4083   4.5272   4.5831   4.6416   4.6611   5.0548   5.1261
     5.1544   5.2082   5.2316   5.2761   5.4705   5.5240   5.5883   5.6384
     5.6503   6.0498   6.0760   6.1193   6.2306   6.2963   6.3778   6.4979
     6.6044   6.7087   6.8072   6.8238   6.9175   6.9766   7.1387   7.2338
     7.2773   7.3398   7.5045   7.5615   7.5690

          k =-0.3333 0.3152 0.0000 ( 48890 PWs)   bands (ev):

   -18.4867 -18.3058 -18.0958 -17.9626 -17.8918 -17.7124 -17.6526 -17.6005
   -17.4498 -17.3644 -17.3072 -17.1661 -17.0188 -16.9721 -16.9417 -16.9172
   -16.8017 -16.7805 -16.7273 -16.7007 -16.6821 -16.6414 -16.5846 -16.5102
   -16.4752 -16.4597 -16.4074 -16.3275 -16.2446 -16.1947  -7.9828  -7.4577
    -7.2921  -7.1484  -6.9515  -6.5828  -6.3927  -6.1615  -5.9557  -5.8318
    -5.7653  -5.0003  -4.8947  -4.7632  -4.5657  -4.3309  -4.2577  -4.1943
    -4.1693  -4.1276  -3.9705  -3.9482  -3.9124  -3.8739  -3.7752  -3.7196
    -3.6396  -3.5708  -3.5380  -3.5150  -3.4832  -3.4419  -3.2999  -3.2647
    -3.2458  -3.2137  -3.1279  -3.0436  -2.9494  -2.8670  -2.6517  -2.3138
    -2.2498  -1.8366  -1.7695  -1.6815  -1.6287  -1.5329  -1.4643  -1.4335
    -1.3459  -1.3186  -1.3113  -1.2516  -1.2063  -1.1421  -1.1117  -1.0710
    -1.0069  -0.9791  -0.9229  -0.9141  -0.8576  -0.8205  -0.7464  -0.6889
    -0.6849  -0.6760  -0.6679  -0.6334  -0.5734  -0.4736  -0.4553  -0.4350
    -0.4149  -0.3989  -0.3505  -0.3146  -0.2466  -0.2052  -0.1526  -0.1313
    -0.0804  -0.0714  -0.0355   0.0006   0.0383   0.1086   0.1335   0.1905
     0.2047   0.2263   0.2926   0.3356   0.4086   0.4471   0.4925   0.5046
     0.5315   0.5950   0.6394   0.6622   0.7052   0.7306   0.7612   0.8284
     0.8419   0.8822   0.9478   0.9598   0.9965   1.0086   1.0473   1.0937
     1.1488   1.1854   1.2195   1.2306   1.2960   1.3350   1.3662   1.3912
     1.4814   1.5762   1.5963   1.6878   1.7850   1.8508   1.8935   1.9100
     1.9370   1.9703   1.9856   2.1468   2.2130   2.6125   2.6297   2.6816
     2.7111   2.8255   2.8898   2.9207   3.0599   3.1513   3.1630   3.2742
     3.3018   3.5154   3.5317   3.6488   3.6684   3.6833   3.7554   3.8436
     3.9976   4.0336   4.1158   4.1644   4.1826   4.4064   4.4710   4.4927
     4.5157   4.6611   4.7228   4.8669   4.9399   5.1081   5.1372   5.2962
     5.3066   5.5453   5.5861   5.6984   5.7559   5.7788   5.9209   6.0121
     6.1677   6.2263   6.2427   6.3006   6.3729   6.3847   6.3983   6.4954
     6.5885   6.6462   6.6604   6.8489   6.8908

          k =-0.3333 0.6304 0.0000 ( 48860 PWs)   bands (ev):

   -18.3303 -18.2204 -18.0766 -17.9942 -17.8996 -17.7919 -17.6928 -17.6610
   -17.6056 -17.4562 -17.2045 -17.1643 -17.0194 -16.9746 -16.9190 -16.8901
   -16.8113 -16.7902 -16.7037 -16.6775 -16.6708 -16.6457 -16.6033 -16.5209
   -16.4698 -16.4332 -16.4123 -16.3389 -16.2032 -16.1908  -8.0860  -7.5514
    -7.5077  -7.1676  -6.9688  -6.2821  -6.2070  -5.8671  -5.7493  -5.6819
    -5.4422  -5.2461  -5.1124  -5.0175  -4.7647  -4.4608  -4.3664  -4.2178
    -4.1192  -4.0760  -3.8729  -3.8319  -3.7736  -3.6559  -3.6267  -3.5896
    -3.5408  -3.4985  -3.4049  -3.3404  -3.3054  -3.2501  -3.2120  -3.0966
    -3.0794  -2.9430  -2.9321  -2.8057  -2.6826  -2.6282  -2.3830  -2.3798
    -2.2977  -1.9947  -1.9787  -1.8994  -1.7615  -1.7534  -1.7346  -1.7085
    -1.6929  -1.5423  -1.4840  -1.4522  -1.4427  -1.3879  -1.3482  -1.2489
    -1.1404  -1.1353  -1.0655  -1.0005  -0.9942  -0.9567  -0.8988  -0.8808
    -0.8366  -0.8047  -0.7567  -0.7359  -0.6678  -0.6233  -0.5218  -0.4513
    -0.4041  -0.3907  -0.3487  -0.3464  -0.2536  -0.2069  -0.1753  -0.1247
    -0.1009  -0.0712  -0.0126   0.0017   0.0213   0.0680   0.0861   0.1129
     0.1918   0.2265   0.2719   0.2949   0.3207   0.3900   0.4400   0.4790
     0.5425   0.5491   0.5769   0.5876   0.6272   0.6540   0.7213   0.7318
     0.7390   0.7918   0.7967   0.8218   0.8649   0.9188   0.9707   1.0219
     1.0580   1.0626   1.1272   1.1655   1.1951   1.2267   1.2889   1.3051
     1.3165   1.5004   1.5472   1.5547   1.5949   1.6266   1.6752   1.7637
     1.8450   1.8722   1.8999   1.9162   2.0326   2.1976   2.3152   2.4468
     2.4550   2.5179   2.5639   2.7799   2.8590   2.9317   3.0758   3.1562
     3.4071   3.4521   3.4555   3.4598   3.6923   3.8363   4.0012   4.1360
     4.2744   4.3956   4.5039   4.6136   4.6387   4.6590   5.0548   5.0956
     5.1868   5.2075   5.2425   5.2754   5.4674   5.5678   5.5842   5.6154
     5.6394   6.0669   6.0779   6.1070   6.2258   6.2942   6.3991   6.5103
     6.6000   6.7089   6.8087   6.8188   6.9033   6.9338   7.1112   7.2398
     7.2944   7.3448   7.4779   7.5572   7.5688

     the Fermi energy is     4.0565 ev

!    total energy              =   -1215.63589328 Ry
     Harris-Foulkes estimate   =   -1215.63589328 Ry
     estimated scf accuracy    <          5.9E-12 Ry

     The total energy is the sum of the following terms:

     one-electron contribution =  -10162.33603918 Ry
     hartree contribution      =    5235.93268083 Ry
     xc contribution           =    -309.39340726 Ry
     ewald contribution        =    4020.16148243 Ry
     smearing contrib. (-TS)   =      -0.00061009 Ry

     convergence has been achieved in  27 iterations

     Forces acting on atoms (cartesian axes, Ry/au):

     atom    1 type  1   force =    -0.02241746    0.05514189    1.29334323
     atom    2 type  1   force =     0.02493127   -0.05617253    1.29194307
     atom    3 type  1   force =    -0.01558773   -0.13863324    1.39140339
     atom    4 type  1   force =    -0.00488285    0.00748871    0.02026212
     atom    5 type  1   force =     0.00485865   -0.00759256    0.02125521
     atom    6 type  1   force =     0.00060744    0.00043520    0.00834848
     atom    7 type  1   force =    -0.00306054   -0.00008470    0.01590210
     atom    8 type  1   force =     0.00301284    0.00039838    0.01571691
     atom    9 type  1   force =    -0.00016680    0.00004214    0.00502017
     atom   10 type  1   force =    -0.00328037    0.00237217    0.01489746
     atom   11 type  1   force =     0.00323316   -0.00221045    0.01488040
     atom   12 type  1   force =     0.00003745    0.00012464    0.00785484
     atom   13 type  1   force =    -0.00563434    0.00079933    0.00143217
     atom   14 type  1   force =     0.00594364   -0.00038633    0.00163078
     atom   15 type  1   force =    -0.00023376    0.00021991    0.00658598
     atom   16 type  2   force =    -0.02492272   -0.01698098   -0.04532462
     atom   17 type  2   force =     0.04613620   -0.01637138   -0.01045692
     atom   18 type  2   force =     0.01787750   -0.03513345    0.07928454
     atom   19 type  2   force =     0.02381225    0.01709965   -0.04436271
     atom   20 type  2   force =    -0.04687867    0.01566762   -0.00985539
     atom   21 type  2   force =    -0.01956054    0.03928403    0.07288167
     atom   22 type  2   force =    -0.03030871   -0.01296746   -0.02433858
     atom   23 type  2   force =     0.02442561   -0.01990103   -0.02505445
     atom   24 type  2   force =     0.00440318   -0.01682046    0.02939375
     atom   25 type  2   force =     0.02941645    0.01216205   -0.02476327
     atom   26 type  2   force =    -0.02374487    0.01979402   -0.02522333
     atom   27 type  2   force =    -0.00418946    0.01658735    0.02945608
     atom   28 type  2   force =    -0.03075863   -0.01293858   -0.02211969
     atom   29 type  2   force =     0.02456787   -0.01898850   -0.02585808
     atom   30 type  2   force =     0.00645867   -0.01762972    0.02791606
     atom   31 type  2   force =     0.02990545    0.01217305   -0.02216984
     atom   32 type  2   force =    -0.02419718    0.01868114   -0.02580373
     atom   33 type  2   force =    -0.00576681    0.01728234    0.02787342
     atom   34 type  2   force =    -0.02690459   -0.01469615   -0.01451000
     atom   35 type  2   force =     0.02464670   -0.01918877   -0.02622873
     atom   36 type  2   force =     0.00627564   -0.01733177    0.02682425
     atom   37 type  2   force =     0.02604370    0.01386610   -0.01463345
     atom   38 type  2   force =    -0.02413391    0.01889307   -0.02621104
     atom   39 type  2   force =    -0.00568724    0.01701030    0.02677754
     atom   40 type  2   force =    -0.03795696   -0.07350567   -0.11368978
     atom   41 type  2   force =     0.05081541    0.01776569   -0.12421927
     atom   42 type  2   force =     0.01307493   -0.02169594    0.02522511
     atom   43 type  2   force =     0.03654330    0.07312185   -0.11171227
     atom   44 type  2   force =    -0.05039643   -0.01812992   -0.12205499
     atom   45 type  2   force =    -0.01235270    0.02117902    0.02544928
     atom   46 type  3   force =    -0.04864608    0.10798032   -1.35544553
     atom   47 type  3   force =     0.04836547   -0.10777829   -1.35507313
     atom   48 type  3   force =    -0.64733718   -1.02491067   -0.68099944
     atom   49 type  3   force =     0.66429230    1.15859109   -0.76770667
     atom   50 type  3   force =     0.00208752    0.01557870    0.12894134
     atom   51 type  3   force =     0.00717651    0.00413336    0.13740020
     atom   52 type  3   force =    -0.00363181   -0.01225075    0.12829060
     atom   53 type  3   force =    -0.00782512   -0.00365339    0.13668091
     atom   54 type  4   force =    -0.00069916    0.00210854    0.03150306
     atom   55 type  4   force =     0.00262000   -0.00578332    0.03216530
     atom   56 type  4   force =    -0.00037923   -0.00004907    0.00325893
     atom   57 type  4   force =    -0.00051461    0.00038888    0.00240983
     atom   58 type  4   force =    -0.00015763    0.00008543   -0.00066079
     atom   59 type  4   force =    -0.00029438    0.00000688   -0.00108385
     atom   60 type  4   force =     0.00000879    0.00012911   -0.00098802
     atom   61 type  4   force =    -0.00005775    0.00022157   -0.00084320
     atom   62 type  4   force =     0.00001756    0.00040115   -0.00191340
     atom   63 type  4   force =    -0.00011840    0.00002260   -0.00183325
     atom   64 type  4   force =     0.00019528    0.00008388    0.00228480
     atom   65 type  4   force =    -0.00013039   -0.00003458    0.00240435
     atom   66 type  4   force =     0.00014935    0.00009682    0.00136530
     atom   67 type  4   force =    -0.00018843    0.00013072    0.00143244
     atom   68 type  4   force =    -0.00040080    0.00028030    0.00081158
     atom   69 type  4   force =    -0.00075088    0.00038328    0.00162686
     atom   70 type  4   force =    -0.00050878   -0.00002234   -0.00290415
     atom   71 type  4   force =    -0.00029193   -0.00027740   -0.00218765
     atom   72 type  4   force =    -0.00054456   -0.00046352   -0.02621922
     atom   73 type  4   force =    -0.00330683   -0.00295062   -0.03531860
     atom   74 type  4   force =    -0.00243805    0.00414308    0.02953714
     atom   75 type  4   force =     0.00362094   -0.00426979    0.03327300
     atom   76 type  4   force =     0.00017920   -0.00025819    0.00264156
     atom   77 type  4   force =     0.00024558    0.00041540    0.00336036
     atom   78 type  4   force =     0.00001134    0.00031686   -0.00121199
     atom   79 type  4   force =     0.00008718    0.00014967   -0.00075463
     atom   80 type  4   force =     0.00009810   -0.00006852   -0.00077027
     atom   81 type  4   force =     0.00004343    0.00008621   -0.00101880
     atom   82 type  4   force =     0.00002505    0.00022628   -0.00181415
     atom   83 type  4   force =    -0.00014512   -0.00012727   -0.00191126
     atom   84 type  4   force =     0.00004501    0.00027280    0.00231435
     atom   85 type  4   force =    -0.00030859    0.00015110    0.00235741
     atom   86 type  4   force =     0.00025608    0.00008010    0.00145433
     atom   87 type  4   force =    -0.00002261    0.00010067    0.00134978
     atom   88 type  4   force =     0.00045713   -0.00012888    0.00174740
     atom   89 type  4   force =     0.00029011    0.00000418    0.00104392
     atom   90 type  4   force =     0.00004252    0.00049569   -0.00212261
     atom   91 type  4   force =     0.00015435    0.00031379   -0.00285948
     atom   92 type  4   force =     0.00361315    0.00481476   -0.03958218
     atom   93 type  4   force =     0.00061234    0.00060333   -0.02740030

     Total force =     3.677348     Total SCF correction =     0.000007


     Computing stress (Cartesian axis) and pressure

          total   stress  (Ry/bohr**3)                   (kbar)     P=     -487.65
  -0.00350368   0.00013818  -0.00000031         -515.41       20.33       -0.05
   0.00013818  -0.00348088  -0.00001155           20.33     -512.06       -1.70
  -0.00000031  -0.00001155  -0.00296038           -0.05       -1.70     -435.49


     Writing output data file ./pwscf.save/

     init_run     :    219.29s CPU     81.80s WALL (       1 calls)
     electrons    :   9066.31s CPU   7197.78s WALL (       1 calls)
     forces       :     27.67s CPU     11.88s WALL (       1 calls)
     stress       :    592.57s CPU    211.78s WALL (       1 calls)

     Called by init_run:
     wfcinit      :    214.00s CPU     76.50s WALL (       1 calls)
     potinit      :      2.24s CPU      2.25s WALL (       1 calls)
     hinit0       :      2.91s CPU      2.92s WALL (       1 calls)

     Called by electrons:
     c_bands      :   8461.15s CPU   6607.40s WALL (      27 calls)
     sum_band     :    555.27s CPU    552.78s WALL (      27 calls)
     v_of_rho     :      9.97s CPU      9.78s WALL (      28 calls)
     mix_rho      :     39.99s CPU     27.91s WALL (      27 calls)

     Called by c_bands:
     init_us_2    :     46.69s CPU     24.68s WALL (     456 calls)
     cegterg      :   8378.97s CPU   6553.78s WALL (     216 calls)

     Called by sum_band:

     Called by *egterg:
     h_psi        :   7194.21s CPU   6226.71s WALL (     741 calls)
     g_psi        :     43.73s CPU     15.74s WALL (     517 calls)
     cdiaghg      :    165.98s CPU     56.34s WALL (     733 calls)

     Called by h_psi:
     h_psi:calbec :    282.07s CPU     74.55s WALL (     741 calls)
     vloc_psi     :   6606.76s CPU   6064.69s WALL (     741 calls)
     add_vuspsi   :    284.36s CPU     74.78s WALL (     741 calls)

     General routines
     calbec       :    303.64s CPU     79.97s WALL (     781 calls)
     fft          :      4.17s CPU      4.04s WALL (     287 calls)
     ffts         :     19.04s CPU     13.66s WALL (     953 calls)
     fftw         :   6192.19s CPU   6183.67s WALL (  261992 calls)

     Parallel routines

     PWSCF        :      2h45m CPU      2h 5m WALL


   This run was terminated on:  19:41: 7  20Aug2020            

=------------------------------------------------------------------------------=
   JOB DONE.
=------------------------------------------------------------------------------=
